 
             +---------------------------------------------------+
             |                                                   |
             |                   WANNIER90                       |
             |                                                   |
             +---------------------------------------------------+
             |                                                   |
             |        Welcome to the Maximally-Localized         |
             |        Generalized Wannier Functions code         |
             |            http://www.wannier.org                 |
             |                                                   |
             |                                                   |
             |  Wannier90 Developer Group:                       |
             |    Giovanni Pizzi    (EPFL)                       |
             |    Valerio Vitale    (Cambridge)                  |
             |    David Vanderbilt  (Rutgers University)         |
             |    Nicola Marzari    (EPFL)                       |
             |    Ivo Souza         (Universidad del Pais Vasco) |
             |    Arash A. Mostofi  (Imperial College London)    |
             |    Jonathan R. Yates (University of Oxford)       |
             |                                                   |
             |  For the full list of Wannier90 3.x authors,      |
             |  please check the code documentation and the      |
             |  README on the GitHub page of the code            |
             |                                                   |
             |                                                   |
             |  Please cite                                      |
             |                                                   |
             |  [ref] "Wannier90 as a community code:            |
             |        new features and applications",            |
             |        G. Pizzi et al., J. Phys. Cond. Matt. 32,  |
             |        165902 (2020).                             |
             |        http://doi.org/10.1088/1361-648X/ab51ff    |
             |                                                   |
             |  in any publications arising from the use of      |
             |  this code. For the method please cite            |
             |                                                   |
             |  [ref] "Maximally Localized Generalised Wannier   |
             |         Functions for Composite Energy Bands"     |
             |         N. Marzari and D. Vanderbilt              |
             |         Phys. Rev. B 56 12847 (1997)              |
             |                                                   |
             |  [ref] "Maximally Localized Wannier Functions     |
             |         for Entangled Energy Bands"               |
             |         I. Souza, N. Marzari and D. Vanderbilt    |
             |         Phys. Rev. B 65 035109 (2001)             |
             |                                                   |
             |                                                   |
             | Copyright (c) 1996-2020                           |
             |        The Wannier90 Developer Group and          |
             |        individual contributors                    |
             |                                                   |
             |      Release: 3.1.0        5th March    2020      |
             |                                                   |
             | This program is free software; you can            |
             | redistribute it and/or modify it under the terms  |
             | of the GNU General Public License as published by |
             | the Free Software Foundation; either version 2 of |
             | the License, or (at your option) any later version|
             |                                                   |
             | This program is distributed in the hope that it   |
             | will be useful, but WITHOUT ANY WARRANTY; without |
             | even the implied warranty of MERCHANTABILITY or   |
             | FITNESS FOR A PARTICULAR PURPOSE. See the GNU     |
             | General Public License for more details.          |
             |                                                   |
             | You should have received a copy of the GNU General|
             | Public License along with this program; if not,   |
             | write to the Free Software Foundation, Inc.,      |
             | 675 Mass Ave, Cambridge, MA 02139, USA.           |
             |                                                   |
             +---------------------------------------------------+
             |    Execution started on 21Apr2026 at 22:06:26     |
             +---------------------------------------------------+
 
 ******************************************************************************
 * -> Using CODATA 2006 constant values                                       *
 *    (http://physics.nist.gov/cuu/Constants/index.html)                      *
 * -> Using Bohr value from CODATA                                            *
 ******************************************************************************
 

 Running in parallel on  16 CPUs

 
                                    ------
                                    SYSTEM
                                    ------
 
                              Lattice Vectors (Ang)
                    a_1     2.135685  -1.233039   0.000000
                    a_2     2.135685   1.233039   0.000000
                    a_3     0.000000   0.000000  30.000000
 
                   Unit Cell Volume:     158.00294  (Ang^3)
 
                        Reciprocal-Space Vectors (Ang^-1)
                    b_1     1.471000  -2.547846   0.000000
                    b_2     1.471000   2.547846  -0.000000
                    b_3    -0.000000   0.000000   0.209440
  
 *----------------------------------------------------------------------------*
 |   Site       Fractional Coordinate          Cartesian Coordinate (Ang)     |
 +----------------------------------------------------------------------------+
 | C    1   0.00000   0.00000   0.00000   |    0.00000   0.00000   0.00000    |
 | C    2   0.33333   0.33333   0.00000   |    1.42379   0.00000   0.00000    |
 *----------------------------------------------------------------------------*
                                ------------
                                K-POINT GRID
                                ------------
  
             Grid size =  6 x  6 x  1      Total points =   36
  
  
 *---------------------------------- MAIN ------------------------------------*
 |  Number of Wannier Functions               :                 2             |
 |  Number of Objective Wannier Functions     :                 2             |
 |  Number of input Bloch states              :                80             |
 |  Output verbosity (1=low, 5=high)          :                 1             |
 |  Timing Level (1=low, 5=high)              :                 1             |
 |  Optimisation (0=memory, 3=speed)          :                 3             |
 |  Length Unit                               :               Ang             |
 |  Post-processing setup (write *.nnkp)      :                 F             |
 |  Using Gamma-only branch of algorithms     :                 F             |
 *----------------------------------------------------------------------------*
 *------------------------------- WANNIERISE ---------------------------------*
 |  Total number of iterations                :               400             |
 |  Number of CG steps before reset           :                 5             |
 |  Trial step length for line search         :             2.000             |
 |  Convergence tolerence                     :         0.100E-09             |
 |  Convergence window                        :                -1             |
 |  Iterations between writing output         :                 1             |
 |  Iterations between backing up to disk     :               100             |
 |  Write r^2_nm to file                      :                 F             |
 |  Write xyz WF centres to file              :                 T             |
 |  Write on-site energies <0n|H|0n> to file  :                 F             |
 |  Use guiding centre to control phases      :                 T             |
 |  Use phases for initial projections        :                 F             |
 |  Iterations before starting guiding centres:                 0             |
 |  Iterations between using guiding centres  :                 1             |
 *----------------------------------------------------------------------------*
 *------------------------------- DISENTANGLE --------------------------------*
 |  Using band disentanglement                :                 T             |
 |  Total number of iterations                :              2000             |
 |  Mixing ratio                              :             0.500             |
 |  Convergence tolerence                     :         1.000E-10             |
 |  Convergence window                        :                 3             |
 *----------------------------------------------------------------------------*
 *-------------------------------- PLOTTING ----------------------------------*
 |  Plotting Hamiltonian in WF basis          :                 T             |
 *----------------------------------------------------------------------------*
 Time to read parameters        0.038 (sec)

 *---------------------------------- K-MESH ----------------------------------*
 +----------------------------------------------------------------------------+
 |                    Distance to Nearest-Neighbour Shells                    |
 |                    ------------------------------------                    |
 |          Shell             Distance (Ang^-1)          Multiplicity         |
 |          -----             -----------------          ------------         |
 |             1                   0.209440                      2            |
 |             2                   0.418879                      2            |
 |             3                   0.490333                      6            |
 |             4                   0.533190                     12            |
 |             5                   0.628319                      2            |
 |             6                   0.644893                     12            |
 |             7                   0.797001                     12            |
 |             8                   0.837758                      2            |
 |             9                   0.849282                      6            |
 |            10                   0.874726                     12            |
 |            11                   0.946963                     12            |
 |            12                   0.970703                     12            |
 |            13                   0.980666                      6            |
 |            14                   1.002782                     12            |
 |            15                   1.047198                      2            |
 |            16                   1.056439                     12            |
 |            17                   1.066380                     12            |
 |            18                   1.156309                     12            |
 |            19                   1.164685                     12            |
 |            20                   1.192945                     12            |
 |            21                   1.289785                     12            |
 |            22                   1.297300                     12            |
 |            23                   1.314097                     24            |
 |            24                   1.348296                     12            |
 |            25                   1.363249                     24            |
 |            26                   1.434688                     12            |
 |            27                   1.441448                     24            |
 |            28                   1.471000                      6            |
 |            29                   1.485835                     12            |
 |            30                   1.529477                     12            |
 |            31                   1.544288                     24            |
 |            32                   1.599570                     12            |
 |            33                   1.667216                     24            |
 |            34                   1.692832                     12            |
 |            35                   1.698564                      6            |
 |            36                   1.711428                     12            |
 +----------------------------------------------------------------------------+
 | The b-vectors are chosen automatically                                     |
 | The following shells are used:   1,  3                                     |
 +----------------------------------------------------------------------------+
 |                        Shell   # Nearest-Neighbours                        |
 |                        -----   --------------------                        |
 |                          1               2                                 |
 |                          3               6                                 |
 +----------------------------------------------------------------------------+
 | Completeness relation is fully satisfied [Eq. (B1), PRB 56, 12847 (1997)]  |
 +----------------------------------------------------------------------------+
 |                  b_k Vectors (Ang^-1) and Weights (Ang^2)                  |
 |                  ----------------------------------------                  |
 |            No.         b_k(x)      b_k(y)      b_k(z)        w_b           |
 |            ---        --------------------------------     --------        |
 |             1         0.000000    0.000000    0.209440    11.398633        |
 |             2         0.000000    0.000000   -0.209440    11.398633        |
 |             3         0.245167    0.424641    0.000000     1.386424        |
 |             4         0.245167   -0.424641    0.000000     1.386424        |
 |             5         0.490333    0.000000    0.000000     1.386424        |
 |             6        -0.245167   -0.424641    0.000000     1.386424        |
 |             7        -0.245167    0.424641    0.000000     1.386424        |
 |             8        -0.490333    0.000000    0.000000     1.386424        |
 +----------------------------------------------------------------------------+
 |                           b_k Directions (Ang^-1)                          |
 |                           -----------------------                          |
 |            No.           x           y           z                         |
 |            ---        --------------------------------                     |
 |             1         0.000000    0.000000    0.209440                     |
 |             2         0.245167    0.424641    0.000000                     |
 |             3         0.245167   -0.424641    0.000000                     |
 |             4         0.490333    0.000000    0.000000                     |
 +----------------------------------------------------------------------------+
  
 Time to get kmesh              0.016 (sec)
 *============================================================================*
 |                              MEMORY ESTIMATE                               |
 |         Maximum RAM allocated during each phase of the calculation         |
 *============================================================================*
 |                        Disentanglement           35.58 Mb                  |
 |                            Wannierise:            0.82 Mb                  |
 |                          plot_wannier:            0.82 Mb                  |
 *----------------------------------------------------------------------------*
  
 Starting a new Wannier90 calculation ...


 Reading overlaps from wannier/graphene.mmn    :  Created on 21Apr2026 at 22: 4:29

 Reading projections from wannier/graphene.amn :  Created on 21Apr2026 at 22: 4:28

 Time to read overlaps          1.473 (sec)

 *------------------------------- DISENTANGLE --------------------------------*
 +----------------------------------------------------------------------------+
 |                              Energy  Windows                               |
 |                              ---------------                               |
 |                   Outer:  -23.77969  to   35.48613  (eV)                   |
 |                   Inner:   -7.29000  to   -0.97000  (eV)                   |
 +----------------------------------------------------------------------------+
   Number of target bands to extract:    2

                   Unitarised projection of Wannier functions                  
                   ------------------------------------------                  
   A_mn = <psi_m|g_n> --> S = A.A^+ --> U = S^-1/2.A
   In dis_project... done
   Using an inner window (linner = T)
   In dis_proj_froz... done

                   Extraction of optimally-connected subspace                  
                   ------------------------------------------                  
 +---------------------------------------------------------------------+<-- DIS
 |  Iter     Omega_I(i-1)      Omega_I(i)      Delta (frac.)    Time   |<-- DIS
 +---------------------------------------------------------------------+<-- DIS
       1       1.89953004       1.86777525       1.700E-02      0.00    <-- DIS
       2       1.87438746       1.85372387       1.115E-02      0.01    <-- DIS
       3       1.85999733       1.84235281       9.577E-03      0.01    <-- DIS
       4       1.84770538       1.83268549       8.196E-03      0.02    <-- DIS
       5       1.83719772       1.82434596       7.045E-03      0.02    <-- DIS
       6       1.82816505       1.81708188       6.099E-03      0.03    <-- DIS
       7       1.82034507       1.81070725       5.323E-03      0.03    <-- DIS
       8       1.81352657       1.80507971       4.679E-03      0.04    <-- DIS
       9       1.80754231       1.80008743       4.141E-03      0.04    <-- DIS
      10       1.80225998       1.79564064       3.686E-03      0.04    <-- DIS
      11       1.79757412       1.79166607       3.298E-03      0.05    <-- DIS
      12       1.79339974       1.78810304       2.962E-03      0.05    <-- DIS
      13       1.78966755       1.78490066       2.671E-03      0.06    <-- DIS
      14       1.78632028       1.78201588       2.415E-03      0.06    <-- DIS
      15       1.78331013       1.77941193       2.191E-03      0.07    <-- DIS
      16       1.78059672       1.77705718       1.992E-03      0.07    <-- DIS
      17       1.77814569       1.77492427       1.815E-03      0.08    <-- DIS
      18       1.77592754       1.77298940       1.657E-03      0.09    <-- DIS
      19       1.77391675       1.77123174       1.516E-03      0.09    <-- DIS
      20       1.77209116       1.76963306       1.389E-03      0.10    <-- DIS
      21       1.77043141       1.76817724       1.275E-03      0.10    <-- DIS
      22       1.76892048       1.76685008       1.172E-03      0.11    <-- DIS
      23       1.76754340       1.76563898       1.079E-03      0.11    <-- DIS
      24       1.76628693       1.76453272       9.942E-04      0.12    <-- DIS
      25       1.76513933       1.76352133       9.175E-04      0.12    <-- DIS
      26       1.76409014       1.76259590       8.477E-04      0.13    <-- DIS
      27       1.76313007       1.76174845       7.842E-04      0.14    <-- DIS
      28       1.76225079       1.76097184       7.263E-04      0.14    <-- DIS
      29       1.76144486       1.76025964       6.733E-04      0.15    <-- DIS
      30       1.76070559       1.75960608       6.249E-04      0.16    <-- DIS
      31       1.76002700       1.75900595       5.805E-04      0.16    <-- DIS
      32       1.75940366       1.75845456       5.397E-04      0.17    <-- DIS
      33       1.75883072       1.75794767       5.023E-04      0.18    <-- DIS
      34       1.75830376       1.75748143       4.679E-04      0.18    <-- DIS
      35       1.75781883       1.75705237       4.362E-04      0.19    <-- DIS
      36       1.75737232       1.75665733       4.070E-04      0.20    <-- DIS
      37       1.75696096       1.75629345       3.801E-04      0.20    <-- DIS
      38       1.75658180       1.75595813       3.552E-04      0.21    <-- DIS
      39       1.75623215       1.75564899       3.322E-04      0.22    <-- DIS
      40       1.75590956       1.75536389       3.109E-04      0.22    <-- DIS
      41       1.75561180       1.75510086       2.911E-04      0.23    <-- DIS
      42       1.75533685       1.75485810       2.728E-04      0.23    <-- DIS
      43       1.75508287       1.75463397       2.558E-04      0.24    <-- DIS
      44       1.75484815       1.75442698       2.401E-04      0.25    <-- DIS
      45       1.75463115       1.75423576       2.254E-04      0.25    <-- DIS
      46       1.75443048       1.75405905       2.118E-04      0.26    <-- DIS
      47       1.75424483       1.75389571       1.991E-04      0.26    <-- DIS
      48       1.75407302       1.75374469       1.872E-04      0.27    <-- DIS
      49       1.75391398       1.75360502       1.762E-04      0.28    <-- DIS
      50       1.75376670       1.75347583       1.659E-04      0.28    <-- DIS
      51       1.75363028       1.75335628       1.563E-04      0.29    <-- DIS
      52       1.75350387       1.75324565       1.473E-04      0.29    <-- DIS
      53       1.75338672       1.75314324       1.389E-04      0.30    <-- DIS
      54       1.75327812       1.75304842       1.310E-04      0.30    <-- DIS
      55       1.75317741       1.75296062       1.237E-04      0.31    <-- DIS
      56       1.75308400       1.75287930       1.168E-04      0.31    <-- DIS
      57       1.75299734       1.75280396       1.103E-04      0.32    <-- DIS
      58       1.75291692       1.75273416       1.043E-04      0.33    <-- DIS
      59       1.75284228       1.75266948       9.859E-05      0.33    <-- DIS
      60       1.75277298       1.75260954       9.326E-05      0.34    <-- DIS
      61       1.75270862       1.75255397       8.825E-05      0.34    <-- DIS
      62       1.75264885       1.75250245       8.354E-05      0.35    <-- DIS
      63       1.75259332       1.75245468       7.911E-05      0.35    <-- DIS
      64       1.75254173       1.75241038       7.495E-05      0.36    <-- DIS
      65       1.75249377       1.75236930       7.103E-05      0.37    <-- DIS
      66       1.75244920       1.75233119       6.734E-05      0.37    <-- DIS
      67       1.75240775       1.75229584       6.387E-05      0.38    <-- DIS
      68       1.75236921       1.75226304       6.059E-05      0.39    <-- DIS
      69       1.75233336       1.75223260       5.751E-05      0.39    <-- DIS
      70       1.75230002       1.75220436       5.459E-05      0.40    <-- DIS
      71       1.75226899       1.75217814       5.184E-05      0.40    <-- DIS
      72       1.75224011       1.75215381       4.925E-05      0.41    <-- DIS
      73       1.75221323       1.75213123       4.680E-05      0.42    <-- DIS
      74       1.75218821       1.75211026       4.449E-05      0.42    <-- DIS
      75       1.75216491       1.75209079       4.230E-05      0.43    <-- DIS
      76       1.75214321       1.75207272       4.023E-05      0.44    <-- DIS
      77       1.75212299       1.75205593       3.827E-05      0.44    <-- DIS
      78       1.75210416       1.75204035       3.642E-05      0.45    <-- DIS
      79       1.75208661       1.75202587       3.467E-05      0.46    <-- DIS
      80       1.75207026       1.75201242       3.301E-05      0.46    <-- DIS
      81       1.75205502       1.75199993       3.144E-05      0.47    <-- DIS
      82       1.75204081       1.75198833       2.995E-05      0.48    <-- DIS
      83       1.75202755       1.75197755       2.854E-05      0.48    <-- DIS
      84       1.75201519       1.75196753       2.720E-05      0.49    <-- DIS
      85       1.75200367       1.75195823       2.593E-05      0.50    <-- DIS
      86       1.75199291       1.75194958       2.473E-05      0.50    <-- DIS
      87       1.75198287       1.75194155       2.359E-05      0.51    <-- DIS
      88       1.75197351       1.75193408       2.250E-05      0.52    <-- DIS
      89       1.75196476       1.75192714       2.147E-05      0.52    <-- DIS
      90       1.75195660       1.75192069       2.049E-05      0.53    <-- DIS
      91       1.75194898       1.75191470       1.956E-05      0.54    <-- DIS
      92       1.75194185       1.75190913       1.868E-05      0.54    <-- DIS
      93       1.75193520       1.75190395       1.784E-05      0.55    <-- DIS
      94       1.75192899       1.75189913       1.704E-05      0.55    <-- DIS
      95       1.75192318       1.75189466       1.628E-05      0.56    <-- DIS
      96       1.75191775       1.75189050       1.556E-05      0.57    <-- DIS
      97       1.75191268       1.75188663       1.487E-05      0.57    <-- DIS
      98       1.75190793       1.75188303       1.422E-05      0.58    <-- DIS
      99       1.75190350       1.75187968       1.359E-05      0.58    <-- DIS
     100       1.75189934       1.75187657       1.300E-05      0.59    <-- DIS
     101       1.75189546       1.75187368       1.243E-05      0.59    <-- DIS
     102       1.75189183       1.75187099       1.189E-05      0.60    <-- DIS
     103       1.75188842       1.75186849       1.138E-05      0.61    <-- DIS
     104       1.75188524       1.75186616       1.089E-05      0.61    <-- DIS
     105       1.75188226       1.75186400       1.042E-05      0.62    <-- DIS
     106       1.75187946       1.75186199       9.975E-06      0.63    <-- DIS
     107       1.75187685       1.75186012       9.550E-06      0.63    <-- DIS
     108       1.75187440       1.75185838       9.144E-06      0.64    <-- DIS
     109       1.75187210       1.75185676       8.757E-06      0.65    <-- DIS
     110       1.75186995       1.75185525       8.387E-06      0.66    <-- DIS
     111       1.75186793       1.75185385       8.034E-06      0.66    <-- DIS
     112       1.75186603       1.75185255       7.697E-06      0.67    <-- DIS
     113       1.75186426       1.75185134       7.376E-06      0.68    <-- DIS
     114       1.75186259       1.75185021       7.068E-06      0.69    <-- DIS
     115       1.75186103       1.75184916       6.774E-06      0.69    <-- DIS
     116       1.75185956       1.75184818       6.494E-06      0.70    <-- DIS
     117       1.75185818       1.75184727       6.225E-06      0.71    <-- DIS
     118       1.75185688       1.75184643       5.969E-06      0.71    <-- DIS
     119       1.75185567       1.75184564       5.723E-06      0.72    <-- DIS
     120       1.75185453       1.75184491       5.489E-06      0.72    <-- DIS
     121       1.75185345       1.75184423       5.264E-06      0.73    <-- DIS
     122       1.75185244       1.75184360       5.050E-06      0.74    <-- DIS
     123       1.75185149       1.75184301       4.844E-06      0.74    <-- DIS
     124       1.75185060       1.75184246       4.648E-06      0.75    <-- DIS
     125       1.75184976       1.75184195       4.460E-06      0.75    <-- DIS
     126       1.75184897       1.75184147       4.280E-06      0.76    <-- DIS
     127       1.75184823       1.75184103       4.107E-06      0.77    <-- DIS
     128       1.75184752       1.75184062       3.942E-06      0.77    <-- DIS
     129       1.75184686       1.75184024       3.784E-06      0.78    <-- DIS
     130       1.75184624       1.75183988       3.633E-06      0.79    <-- DIS
     131       1.75184566       1.75183955       3.488E-06      0.79    <-- DIS
     132       1.75184511       1.75183924       3.349E-06      0.80    <-- DIS
     133       1.75184459       1.75183895       3.216E-06      0.81    <-- DIS
     134       1.75184409       1.75183868       3.088E-06      0.81    <-- DIS
     135       1.75184363       1.75183844       2.966E-06      0.82    <-- DIS
     136       1.75184319       1.75183820       2.849E-06      0.83    <-- DIS
     137       1.75184278       1.75183799       2.736E-06      0.83    <-- DIS
     138       1.75184239       1.75183779       2.629E-06      0.84    <-- DIS
     139       1.75184203       1.75183760       2.525E-06      0.85    <-- DIS
     140       1.75184168       1.75183743       2.426E-06      0.85    <-- DIS
     141       1.75184135       1.75183727       2.331E-06      0.86    <-- DIS
     142       1.75184104       1.75183712       2.240E-06      0.86    <-- DIS
     143       1.75184075       1.75183697       2.153E-06      0.87    <-- DIS
     144       1.75184047       1.75183684       2.069E-06      0.87    <-- DIS
     145       1.75184021       1.75183672       1.989E-06      0.88    <-- DIS
     146       1.75183996       1.75183661       1.912E-06      0.88    <-- DIS
     147       1.75183972       1.75183650       1.838E-06      0.89    <-- DIS
     148       1.75183950       1.75183641       1.767E-06      0.90    <-- DIS
     149       1.75183929       1.75183632       1.698E-06      0.90    <-- DIS
     150       1.75183909       1.75183623       1.633E-06      0.91    <-- DIS
     151       1.75183890       1.75183615       1.570E-06      0.92    <-- DIS
     152       1.75183872       1.75183608       1.510E-06      0.92    <-- DIS
     153       1.75183855       1.75183601       1.452E-06      0.93    <-- DIS
     154       1.75183839       1.75183595       1.396E-06      0.94    <-- DIS
     155       1.75183824       1.75183589       1.343E-06      0.94    <-- DIS
     156       1.75183809       1.75183583       1.291E-06      0.95    <-- DIS
     157       1.75183795       1.75183578       1.242E-06      0.95    <-- DIS
     158       1.75183782       1.75183573       1.195E-06      0.96    <-- DIS
     159       1.75183770       1.75183569       1.149E-06      0.97    <-- DIS
     160       1.75183758       1.75183565       1.106E-06      0.97    <-- DIS
     161       1.75183747       1.75183561       1.064E-06      0.98    <-- DIS
     162       1.75183736       1.75183557       1.023E-06      0.99    <-- DIS
     163       1.75183726       1.75183554       9.845E-07      0.99    <-- DIS
     164       1.75183716       1.75183551       9.472E-07      1.00    <-- DIS
     165       1.75183707       1.75183548       9.114E-07      1.00    <-- DIS
     166       1.75183699       1.75183545       8.770E-07      1.01    <-- DIS
     167       1.75183690       1.75183542       8.440E-07      1.01    <-- DIS
     168       1.75183682       1.75183540       8.122E-07      1.02    <-- DIS
     169       1.75183675       1.75183538       7.816E-07      1.02    <-- DIS
     170       1.75183668       1.75183536       7.523E-07      1.03    <-- DIS
     171       1.75183661       1.75183534       7.240E-07      1.04    <-- DIS
     172       1.75183654       1.75183532       6.969E-07      1.04    <-- DIS
     173       1.75183648       1.75183531       6.708E-07      1.05    <-- DIS
     174       1.75183642       1.75183529       6.457E-07      1.05    <-- DIS
     175       1.75183636       1.75183528       6.215E-07      1.06    <-- DIS
     176       1.75183631       1.75183526       5.983E-07      1.06    <-- DIS
     177       1.75183626       1.75183525       5.760E-07      1.07    <-- DIS
     178       1.75183621       1.75183524       5.545E-07      1.08    <-- DIS
     179       1.75183616       1.75183523       5.339E-07      1.08    <-- DIS
     180       1.75183612       1.75183522       5.140E-07      1.09    <-- DIS
     181       1.75183608       1.75183521       4.949E-07      1.10    <-- DIS
     182       1.75183604       1.75183520       4.765E-07      1.10    <-- DIS
     183       1.75183600       1.75183519       4.588E-07      1.11    <-- DIS
     184       1.75183596       1.75183518       4.418E-07      1.12    <-- DIS
     185       1.75183592       1.75183518       4.255E-07      1.13    <-- DIS
     186       1.75183589       1.75183517       4.097E-07      1.13    <-- DIS
     187       1.75183586       1.75183517       3.946E-07      1.14    <-- DIS
     188       1.75183583       1.75183516       3.800E-07      1.15    <-- DIS
     189       1.75183580       1.75183515       3.659E-07      1.15    <-- DIS
     190       1.75183577       1.75183515       3.524E-07      1.16    <-- DIS
     191       1.75183574       1.75183514       3.394E-07      1.17    <-- DIS
     192       1.75183571       1.75183514       3.269E-07      1.17    <-- DIS
     193       1.75183569       1.75183514       3.149E-07      1.18    <-- DIS
     194       1.75183566       1.75183513       3.033E-07      1.19    <-- DIS
     195       1.75183564       1.75183513       2.922E-07      1.19    <-- DIS
     196       1.75183562       1.75183513       2.814E-07      1.20    <-- DIS
     197       1.75183560       1.75183512       2.711E-07      1.21    <-- DIS
     198       1.75183558       1.75183512       2.611E-07      1.21    <-- DIS
     199       1.75183556       1.75183512       2.516E-07      1.22    <-- DIS
     200       1.75183554       1.75183512       2.424E-07      1.22    <-- DIS
     201       1.75183552       1.75183511       2.335E-07      1.23    <-- DIS
     202       1.75183551       1.75183511       2.249E-07      1.23    <-- DIS
     203       1.75183549       1.75183511       2.167E-07      1.24    <-- DIS
     204       1.75183547       1.75183511       2.088E-07      1.24    <-- DIS
     205       1.75183546       1.75183511       2.012E-07      1.25    <-- DIS
     206       1.75183544       1.75183510       1.938E-07      1.25    <-- DIS
     207       1.75183543       1.75183510       1.867E-07      1.26    <-- DIS
     208       1.75183542       1.75183510       1.799E-07      1.26    <-- DIS
     209       1.75183540       1.75183510       1.734E-07      1.27    <-- DIS
     210       1.75183539       1.75183510       1.671E-07      1.27    <-- DIS
     211       1.75183538       1.75183510       1.610E-07      1.28    <-- DIS
     212       1.75183537       1.75183510       1.551E-07      1.28    <-- DIS
     213       1.75183536       1.75183510       1.495E-07      1.29    <-- DIS
     214       1.75183535       1.75183510       1.441E-07      1.30    <-- DIS
     215       1.75183534       1.75183509       1.388E-07      1.30    <-- DIS
     216       1.75183533       1.75183509       1.338E-07      1.31    <-- DIS
     217       1.75183532       1.75183509       1.289E-07      1.31    <-- DIS
     218       1.75183531       1.75183509       1.243E-07      1.32    <-- DIS
     219       1.75183530       1.75183509       1.198E-07      1.33    <-- DIS
     220       1.75183529       1.75183509       1.154E-07      1.33    <-- DIS
     221       1.75183529       1.75183509       1.112E-07      1.34    <-- DIS
     222       1.75183528       1.75183509       1.072E-07      1.35    <-- DIS
     223       1.75183527       1.75183509       1.033E-07      1.35    <-- DIS
     224       1.75183526       1.75183509       9.959E-08      1.36    <-- DIS
     225       1.75183526       1.75183509       9.599E-08      1.37    <-- DIS
     226       1.75183525       1.75183509       9.252E-08      1.37    <-- DIS
     227       1.75183524       1.75183509       8.918E-08      1.38    <-- DIS
     228       1.75183524       1.75183509       8.596E-08      1.39    <-- DIS
     229       1.75183523       1.75183509       8.286E-08      1.39    <-- DIS
     230       1.75183523       1.75183509       7.987E-08      1.40    <-- DIS
     231       1.75183522       1.75183509       7.699E-08      1.41    <-- DIS
     232       1.75183522       1.75183509       7.422E-08      1.42    <-- DIS
     233       1.75183521       1.75183509       7.155E-08      1.42    <-- DIS
     234       1.75183521       1.75183509       6.897E-08      1.43    <-- DIS
     235       1.75183520       1.75183509       6.649E-08      1.44    <-- DIS
     236       1.75183520       1.75183509       6.409E-08      1.44    <-- DIS
     237       1.75183519       1.75183509       6.179E-08      1.45    <-- DIS
     238       1.75183519       1.75183509       5.957E-08      1.45    <-- DIS
     239       1.75183519       1.75183509       5.743E-08      1.46    <-- DIS
     240       1.75183518       1.75183509       5.536E-08      1.46    <-- DIS
     241       1.75183518       1.75183509       5.338E-08      1.47    <-- DIS
     242       1.75183518       1.75183508       5.146E-08      1.47    <-- DIS
     243       1.75183517       1.75183508       4.961E-08      1.48    <-- DIS
     244       1.75183517       1.75183508       4.783E-08      1.48    <-- DIS
     245       1.75183517       1.75183508       4.612E-08      1.49    <-- DIS
     246       1.75183516       1.75183508       4.446E-08      1.49    <-- DIS
     247       1.75183516       1.75183508       4.287E-08      1.50    <-- DIS
     248       1.75183516       1.75183508       4.133E-08      1.50    <-- DIS
     249       1.75183515       1.75183508       3.985E-08      1.51    <-- DIS
     250       1.75183515       1.75183508       3.843E-08      1.52    <-- DIS
     251       1.75183515       1.75183508       3.705E-08      1.52    <-- DIS
     252       1.75183515       1.75183508       3.573E-08      1.53    <-- DIS
     253       1.75183514       1.75183508       3.445E-08      1.53    <-- DIS
     254       1.75183514       1.75183508       3.322E-08      1.54    <-- DIS
     255       1.75183514       1.75183508       3.203E-08      1.55    <-- DIS
     256       1.75183514       1.75183508       3.088E-08      1.55    <-- DIS
     257       1.75183514       1.75183508       2.978E-08      1.56    <-- DIS
     258       1.75183513       1.75183508       2.872E-08      1.57    <-- DIS
     259       1.75183513       1.75183508       2.769E-08      1.57    <-- DIS
     260       1.75183513       1.75183508       2.670E-08      1.58    <-- DIS
     261       1.75183513       1.75183508       2.575E-08      1.59    <-- DIS
     262       1.75183513       1.75183508       2.483E-08      1.60    <-- DIS
     263       1.75183513       1.75183508       2.395E-08      1.60    <-- DIS
     264       1.75183512       1.75183508       2.309E-08      1.61    <-- DIS
     265       1.75183512       1.75183508       2.227E-08      1.62    <-- DIS
     266       1.75183512       1.75183508       2.147E-08      1.62    <-- DIS
     267       1.75183512       1.75183508       2.071E-08      1.63    <-- DIS
     268       1.75183512       1.75183508       1.997E-08      1.64    <-- DIS
     269       1.75183512       1.75183508       1.926E-08      1.64    <-- DIS
     270       1.75183512       1.75183508       1.858E-08      1.65    <-- DIS
     271       1.75183511       1.75183508       1.791E-08      1.65    <-- DIS
     272       1.75183511       1.75183508       1.728E-08      1.66    <-- DIS
     273       1.75183511       1.75183508       1.666E-08      1.67    <-- DIS
     274       1.75183511       1.75183508       1.607E-08      1.67    <-- DIS
     275       1.75183511       1.75183508       1.550E-08      1.68    <-- DIS
     276       1.75183511       1.75183508       1.495E-08      1.69    <-- DIS
     277       1.75183511       1.75183508       1.442E-08      1.69    <-- DIS
     278       1.75183511       1.75183508       1.390E-08      1.70    <-- DIS
     279       1.75183511       1.75183508       1.341E-08      1.71    <-- DIS
     280       1.75183511       1.75183508       1.293E-08      1.71    <-- DIS
     281       1.75183511       1.75183508       1.247E-08      1.72    <-- DIS
     282       1.75183510       1.75183508       1.203E-08      1.73    <-- DIS
     283       1.75183510       1.75183508       1.160E-08      1.74    <-- DIS
     284       1.75183510       1.75183508       1.119E-08      1.74    <-- DIS
     285       1.75183510       1.75183508       1.079E-08      1.75    <-- DIS
     286       1.75183510       1.75183508       1.041E-08      1.76    <-- DIS
     287       1.75183510       1.75183508       1.004E-08      1.77    <-- DIS
     288       1.75183510       1.75183508       9.686E-09      1.77    <-- DIS
     289       1.75183510       1.75183508       9.343E-09      1.78    <-- DIS
     290       1.75183510       1.75183508       9.011E-09      1.79    <-- DIS
     291       1.75183510       1.75183508       8.692E-09      1.79    <-- DIS
     292       1.75183510       1.75183508       8.384E-09      1.80    <-- DIS
     293       1.75183510       1.75183508       8.087E-09      1.81    <-- DIS
     294       1.75183510       1.75183508       7.800E-09      1.81    <-- DIS
     295       1.75183510       1.75183508       7.524E-09      1.82    <-- DIS
     296       1.75183510       1.75183508       7.258E-09      1.82    <-- DIS
     297       1.75183510       1.75183508       7.001E-09      1.83    <-- DIS
     298       1.75183510       1.75183508       6.753E-09      1.83    <-- DIS
     299       1.75183509       1.75183508       6.514E-09      1.84    <-- DIS
     300       1.75183509       1.75183508       6.283E-09      1.84    <-- DIS
     301       1.75183509       1.75183508       6.061E-09      1.85    <-- DIS
     302       1.75183509       1.75183508       5.847E-09      1.86    <-- DIS
     303       1.75183509       1.75183508       5.640E-09      1.86    <-- DIS
     304       1.75183509       1.75183508       5.440E-09      1.87    <-- DIS
     305       1.75183509       1.75183508       5.248E-09      1.87    <-- DIS
     306       1.75183509       1.75183508       5.062E-09      1.88    <-- DIS
     307       1.75183509       1.75183508       4.884E-09      1.89    <-- DIS
     308       1.75183509       1.75183508       4.711E-09      1.89    <-- DIS
     309       1.75183509       1.75183508       4.544E-09      1.90    <-- DIS
     310       1.75183509       1.75183508       4.384E-09      1.91    <-- DIS
     311       1.75183509       1.75183508       4.229E-09      1.91    <-- DIS
     312       1.75183509       1.75183508       4.080E-09      1.92    <-- DIS
     313       1.75183509       1.75183508       3.936E-09      1.93    <-- DIS
     314       1.75183509       1.75183508       3.797E-09      1.93    <-- DIS
     315       1.75183509       1.75183508       3.663E-09      1.94    <-- DIS
     316       1.75183509       1.75183508       3.533E-09      1.94    <-- DIS
     317       1.75183509       1.75183508       3.409E-09      1.95    <-- DIS
     318       1.75183509       1.75183508       3.288E-09      1.96    <-- DIS
     319       1.75183509       1.75183508       3.172E-09      1.96    <-- DIS
     320       1.75183509       1.75183508       3.060E-09      1.97    <-- DIS
     321       1.75183509       1.75183508       2.952E-09      1.97    <-- DIS
     322       1.75183509       1.75183508       2.848E-09      1.98    <-- DIS
     323       1.75183509       1.75183508       2.748E-09      1.99    <-- DIS
     324       1.75183509       1.75183508       2.651E-09      1.99    <-- DIS
     325       1.75183509       1.75183508       2.557E-09      2.00    <-- DIS
     326       1.75183509       1.75183508       2.467E-09      2.01    <-- DIS
     327       1.75183509       1.75183508       2.380E-09      2.01    <-- DIS
     328       1.75183509       1.75183508       2.296E-09      2.02    <-- DIS
     329       1.75183509       1.75183508       2.215E-09      2.03    <-- DIS
     330       1.75183509       1.75183508       2.137E-09      2.03    <-- DIS
     331       1.75183509       1.75183508       2.062E-09      2.04    <-- DIS
     332       1.75183509       1.75183508       1.989E-09      2.05    <-- DIS
     333       1.75183509       1.75183508       1.919E-09      2.06    <-- DIS
     334       1.75183509       1.75183508       1.852E-09      2.06    <-- DIS
     335       1.75183509       1.75183508       1.786E-09      2.07    <-- DIS
     336       1.75183509       1.75183508       1.723E-09      2.08    <-- DIS
     337       1.75183509       1.75183508       1.663E-09      2.09    <-- DIS
     338       1.75183509       1.75183508       1.604E-09      2.09    <-- DIS
     339       1.75183509       1.75183508       1.548E-09      2.10    <-- DIS
     340       1.75183509       1.75183508       1.493E-09      2.11    <-- DIS
     341       1.75183509       1.75183508       1.441E-09      2.11    <-- DIS
     342       1.75183509       1.75183508       1.390E-09      2.12    <-- DIS
     343       1.75183509       1.75183508       1.341E-09      2.13    <-- DIS
     344       1.75183509       1.75183508       1.294E-09      2.14    <-- DIS
     345       1.75183509       1.75183508       1.248E-09      2.14    <-- DIS
     346       1.75183509       1.75183508       1.204E-09      2.15    <-- DIS
     347       1.75183509       1.75183508       1.162E-09      2.16    <-- DIS
     348       1.75183509       1.75183508       1.121E-09      2.16    <-- DIS
     349       1.75183509       1.75183508       1.082E-09      2.17    <-- DIS
     350       1.75183509       1.75183508       1.044E-09      2.18    <-- DIS
     351       1.75183509       1.75183508       1.007E-09      2.18    <-- DIS
     352       1.75183509       1.75183508       9.716E-10      2.19    <-- DIS
     353       1.75183508       1.75183508       9.374E-10      2.20    <-- DIS
     354       1.75183508       1.75183508       9.045E-10      2.20    <-- DIS
     355       1.75183508       1.75183508       8.727E-10      2.21    <-- DIS
     356       1.75183508       1.75183508       8.420E-10      2.22    <-- DIS
     357       1.75183508       1.75183508       8.124E-10      2.22    <-- DIS
     358       1.75183508       1.75183508       7.838E-10      2.23    <-- DIS
     359       1.75183508       1.75183508       7.563E-10      2.24    <-- DIS
     360       1.75183508       1.75183508       7.297E-10      2.24    <-- DIS
     361       1.75183508       1.75183508       7.041E-10      2.25    <-- DIS
     362       1.75183508       1.75183508       6.793E-10      2.26    <-- DIS
     363       1.75183508       1.75183508       6.554E-10      2.26    <-- DIS
     364       1.75183508       1.75183508       6.324E-10      2.27    <-- DIS
     365       1.75183508       1.75183508       6.102E-10      2.28    <-- DIS
     366       1.75183508       1.75183508       5.888E-10      2.28    <-- DIS
     367       1.75183508       1.75183508       5.681E-10      2.29    <-- DIS
     368       1.75183508       1.75183508       5.481E-10      2.30    <-- DIS
     369       1.75183508       1.75183508       5.289E-10      2.30    <-- DIS
     370       1.75183508       1.75183508       5.103E-10      2.31    <-- DIS
     371       1.75183508       1.75183508       4.924E-10      2.32    <-- DIS
     372       1.75183508       1.75183508       4.751E-10      2.32    <-- DIS
     373       1.75183508       1.75183508       4.584E-10      2.33    <-- DIS
     374       1.75183508       1.75183508       4.423E-10      2.34    <-- DIS
     375       1.75183508       1.75183508       4.268E-10      2.35    <-- DIS
     376       1.75183508       1.75183508       4.118E-10      2.35    <-- DIS
     377       1.75183508       1.75183508       3.974E-10      2.36    <-- DIS
     378       1.75183508       1.75183508       3.834E-10      2.37    <-- DIS
     379       1.75183508       1.75183508       3.700E-10      2.38    <-- DIS
     380       1.75183508       1.75183508       3.570E-10      2.38    <-- DIS
     381       1.75183508       1.75183508       3.444E-10      2.39    <-- DIS
     382       1.75183508       1.75183508       3.324E-10      2.39    <-- DIS
     383       1.75183508       1.75183508       3.207E-10      2.40    <-- DIS
     384       1.75183508       1.75183508       3.095E-10      2.41    <-- DIS
     385       1.75183508       1.75183508       2.986E-10      2.41    <-- DIS
     386       1.75183508       1.75183508       2.881E-10      2.42    <-- DIS
     387       1.75183508       1.75183508       2.780E-10      2.43    <-- DIS
     388       1.75183508       1.75183508       2.683E-10      2.43    <-- DIS
     389       1.75183508       1.75183508       2.589E-10      2.44    <-- DIS
     390       1.75183508       1.75183508       2.498E-10      2.44    <-- DIS
     391       1.75183508       1.75183508       2.410E-10      2.45    <-- DIS
     392       1.75183508       1.75183508       2.326E-10      2.45    <-- DIS
     393       1.75183508       1.75183508       2.244E-10      2.46    <-- DIS
     394       1.75183508       1.75183508       2.165E-10      2.47    <-- DIS
     395       1.75183508       1.75183508       2.089E-10      2.47    <-- DIS
     396       1.75183508       1.75183508       2.016E-10      2.48    <-- DIS
     397       1.75183508       1.75183508       1.945E-10      2.48    <-- DIS
     398       1.75183508       1.75183508       1.877E-10      2.49    <-- DIS
     399       1.75183508       1.75183508       1.811E-10      2.50    <-- DIS
     400       1.75183508       1.75183508       1.748E-10      2.51    <-- DIS
     401       1.75183508       1.75183508       1.687E-10      2.51    <-- DIS
     402       1.75183508       1.75183508       1.628E-10      2.52    <-- DIS
     403       1.75183508       1.75183508       1.570E-10      2.53    <-- DIS
     404       1.75183508       1.75183508       1.515E-10      2.53    <-- DIS
     405       1.75183508       1.75183508       1.462E-10      2.54    <-- DIS
     406       1.75183508       1.75183508       1.411E-10      2.55    <-- DIS
     407       1.75183508       1.75183508       1.362E-10      2.56    <-- DIS
     408       1.75183508       1.75183508       1.314E-10      2.56    <-- DIS
     409       1.75183508       1.75183508       1.268E-10      2.57    <-- DIS
     410       1.75183508       1.75183508       1.223E-10      2.58    <-- DIS
     411       1.75183508       1.75183508       1.181E-10      2.59    <-- DIS
     412       1.75183508       1.75183508       1.139E-10      2.59    <-- DIS
     413       1.75183508       1.75183508       1.099E-10      2.60    <-- DIS
     414       1.75183508       1.75183508       1.061E-10      2.61    <-- DIS
     415       1.75183508       1.75183508       1.024E-10      2.61    <-- DIS
     416       1.75183508       1.75183508       9.877E-11      2.62    <-- DIS
     417       1.75183508       1.75183508       9.531E-11      2.63    <-- DIS
     418       1.75183508       1.75183508       9.197E-11      2.63    <-- DIS

             <<<      Delta < 1.000E-10  over  3 iterations     >>>
             <<< Disentanglement convergence criteria satisfied >>>

        Final Omega_I     1.75183508 (Ang^2)

 +----------------------------------------------------------------------------+

 Time to disentangle bands      2.709 (sec)

 Writing checkpoint file wannier/graphene.chk... done

 
 *------------------------------- WANNIERISE ---------------------------------*
 +--------------------------------------------------------------------+<-- CONV
 | Iter  Delta Spread     RMS Gradient      Spread (Ang^2)      Time  |<-- CONV
 +--------------------------------------------------------------------+<-- CONV
 
 ------------------------------------------------------------------------------
 Initial State
  WF centre and spread    1  ( -0.000000, -0.000000, -0.000000 )     0.88491095
  WF centre and spread    2  (  1.423790, -0.000000, -0.000000 )     0.88491103
  Sum of centres and spreads (  1.423790, -0.000000, -0.000000 )     1.76982198
 
      0     0.177E+01     0.0000000000        1.7698218953       2.66  <-- CONV
        O_D=      0.0095879 O_OD=      0.0083989 O_TOT=      1.7698219 <-- SPRD
 ------------------------------------------------------------------------------
 Cycle:      1
  WF centre and spread    1  ( -0.000000, -0.000000, -0.000000 )     0.88463095
  WF centre and spread    2  (  1.423790, -0.000000, -0.000000 )     0.88463104
  Sum of centres and spreads (  1.423790, -0.000000, -0.000000 )     1.76926199
 
      1    -0.560E-03     0.0295552942        1.7692619053       2.66  <-- CONV
        O_D=      0.0090279 O_OD=      0.0083989 O_TOT=      1.7692619 <-- SPRD
 Delta: O_D= -0.5599899E-03 O_OD= -0.1578909E-10 O_TOT= -0.5599900E-03 <-- DLTA
 ------------------------------------------------------------------------------
 Cycle:      2
  WF centre and spread    1  ( -0.000000, -0.000000, -0.000000 )     0.88462965
  WF centre and spread    2  (  1.423790, -0.000000, -0.000000 )     0.88462973
  Sum of centres and spreads (  1.423790, -0.000000, -0.000000 )     1.76925938
 
      2    -0.261E-05     0.0025256649        1.7692592998       2.66  <-- CONV
        O_D=      0.0090253 O_OD=      0.0083989 O_TOT=      1.7692593 <-- SPRD
 Delta: O_D= -0.2605557E-05 O_OD= -0.7111024E-11 O_TOT= -0.2605564E-05 <-- DLTA
 ------------------------------------------------------------------------------
 Cycle:      3
  WF centre and spread    1  ( -0.000000, -0.000000, -0.000000 )     0.88462965
  WF centre and spread    2  (  1.423790, -0.000000, -0.000000 )     0.88462973
  Sum of centres and spreads (  1.423790, -0.000000, -0.000000 )     1.76925938
 
      3    -0.165E-08     0.0000673818        1.7692592981       2.66  <-- CONV
        O_D=      0.0090253 O_OD=      0.0083989 O_TOT=      1.7692593 <-- SPRD
 Delta: O_D= -0.1644313E-08 O_OD= -0.5228748E-11 O_TOT= -0.1649542E-08 <-- DLTA
 ------------------------------------------------------------------------------
 Cycle:      4
  WF centre and spread    1  ( -0.000000, -0.000000, -0.000000 )     0.88462965
  WF centre and spread    2  (  1.423790, -0.000000, -0.000000 )     0.88462973
  Sum of centres and spreads (  1.423790, -0.000000, -0.000000 )     1.76925938
 
      4    -0.107E-12     0.0000025786        1.7692592981       2.66  <-- CONV
        O_D=      0.0090253 O_OD=      0.0083989 O_TOT=      1.7692593 <-- SPRD
 Delta: O_D= -0.3963843E-14 O_OD= -0.1027772E-12 O_TOT= -0.1068035E-12 <-- DLTA
 ------------------------------------------------------------------------------
 Cycle:      5
  WF centre and spread    1  ( -0.000000, -0.000000, -0.000000 )     0.88462965
  WF centre and spread    2  (  1.423790, -0.000000, -0.000000 )     0.88462973
  Sum of centres and spreads (  1.423790, -0.000000, -0.000000 )     1.76925938
 
      5    -0.296E-10     0.0000025741        1.7692592981       2.66  <-- CONV
        O_D=      0.0090253 O_OD=      0.0083989 O_TOT=      1.7692593 <-- SPRD
 Delta: O_D= -0.1367136E-13 O_OD= -0.2954674E-10 O_TOT= -0.2956035E-10 <-- DLTA
 ------------------------------------------------------------------------------
 Cycle:      6
  WF centre and spread    1  ( -0.000000, -0.000000, -0.000000 )     0.88462965
  WF centre and spread    2  (  1.423790, -0.000000, -0.000000 )     0.88462973
  Sum of centres and spreads (  1.423790, -0.000000, -0.000000 )     1.76925938
 
      6    -0.278E-13     0.0000011371        1.7692592981       2.66  <-- CONV
        O_D=      0.0090253 O_OD=      0.0083989 O_TOT=      1.7692593 <-- SPRD
 Delta: O_D= -0.1085763E-13 O_OD= -0.1688059E-13 O_TOT= -0.2775558E-13 <-- DLTA
 ------------------------------------------------------------------------------
 Cycle:      7
  WF centre and spread    1  ( -0.000000, -0.000000, -0.000000 )     0.88462965
  WF centre and spread    2  (  1.423790, -0.000000, -0.000000 )     0.88462973
  Sum of centres and spreads (  1.423790, -0.000000, -0.000000 )     1.76925938
 
      7    -0.202E-13     0.0000011242        1.7692592981       2.66  <-- CONV
        O_D=      0.0090253 O_OD=      0.0083989 O_TOT=      1.7692593 <-- SPRD
 Delta: O_D= -0.1202510E-13 O_OD= -0.8170548E-14 O_TOT= -0.2020606E-13 <-- DLTA
 ------------------------------------------------------------------------------
 Cycle:      8
  WF centre and spread    1  ( -0.000000, -0.000000, -0.000000 )     0.88462965
  WF centre and spread    2  (  1.423790, -0.000000, -0.000000 )     0.88462973
  Sum of centres and spreads (  1.423790, -0.000000, -0.000000 )     1.76925938
 
      8    -0.874E-12     0.0000011115        1.7692592981       2.66  <-- CONV
        O_D=      0.0090253 O_OD=      0.0083989 O_TOT=      1.7692593 <-- SPRD
 Delta: O_D= -0.2339136E-12 O_OD= -0.6399482E-12 O_TOT= -0.8739676E-12 <-- DLTA
 ------------------------------------------------------------------------------
 Cycle:      9
  WF centre and spread    1  ( -0.000000, -0.000000, -0.000000 )     0.88462965
  WF centre and spread    2  (  1.423790, -0.000000, -0.000000 )     0.88462973
  Sum of centres and spreads (  1.423790, -0.000000, -0.000000 )     1.76925938
 
      9    -0.122E-13     0.0000009865        1.7692592981       2.66  <-- CONV
        O_D=      0.0090253 O_OD=      0.0083989 O_TOT=      1.7692593 <-- SPRD
 Delta: O_D= -0.7199102E-15 O_OD= -0.1161918E-13 O_TOT= -0.1221245E-13 <-- DLTA
 ------------------------------------------------------------------------------
 Cycle:     10
  WF centre and spread    1  ( -0.000000, -0.000000, -0.000000 )     0.88462965
  WF centre and spread    2  (  1.423790, -0.000000, -0.000000 )     0.88462973
  Sum of centres and spreads (  1.423790, -0.000000, -0.000000 )     1.76925938
 
     10    -0.278E-13     0.0000009885        1.7692592981       2.67  <-- CONV
        O_D=      0.0090253 O_OD=      0.0083989 O_TOT=      1.7692593 <-- SPRD
 Delta: O_D= -0.1237031E-13 O_OD= -0.1538700E-13 O_TOT= -0.2775558E-13 <-- DLTA
 ------------------------------------------------------------------------------
 Cycle:     11
  WF centre and spread    1  ( -0.000000, -0.000000, -0.000000 )     0.88462965
  WF centre and spread    2  (  1.423790, -0.000000, -0.000000 )     0.88462973
  Sum of centres and spreads (  1.423790, -0.000000, -0.000000 )     1.76925938
 
     11    -0.834E-12     0.0000009748        1.7692592981       2.67  <-- CONV
        O_D=      0.0090253 O_OD=      0.0083989 O_TOT=      1.7692593 <-- SPRD
 Delta: O_D= -0.2764230E-12 O_OD= -0.5579513E-12 O_TOT= -0.8344436E-12 <-- DLTA
 ------------------------------------------------------------------------------
 Cycle:     12
  WF centre and spread    1  ( -0.000000, -0.000000, -0.000000 )     0.88462965
  WF centre and spread    2  (  1.423790, -0.000000, -0.000000 )     0.88462973
  Sum of centres and spreads (  1.423790, -0.000000, -0.000000 )     1.76925938
 
     12    -0.466E-14     0.0000005419        1.7692592981       2.67  <-- CONV
        O_D=      0.0090253 O_OD=      0.0083989 O_TOT=      1.7692593 <-- SPRD
 Delta: O_D=  0.5065393E-15 O_OD= -0.5315193E-14 O_TOT= -0.4662937E-14 <-- DLTA
 ------------------------------------------------------------------------------
 Cycle:     13
  WF centre and spread    1  ( -0.000000, -0.000000, -0.000000 )     0.88462965
  WF centre and spread    2  (  1.423790, -0.000000, -0.000000 )     0.88462973
  Sum of centres and spreads (  1.423790, -0.000000, -0.000000 )     1.76925938
 
     13    -0.466E-14     0.0000005417        1.7692592981       2.67  <-- CONV
        O_D=      0.0090253 O_OD=      0.0083989 O_TOT=      1.7692593 <-- SPRD
 Delta: O_D= -0.2366163E-14 O_OD= -0.2322795E-14 O_TOT= -0.4662937E-14 <-- DLTA
 ------------------------------------------------------------------------------
 Cycle:     14
  WF centre and spread    1  ( -0.000000, -0.000000, -0.000000 )     0.88462965
  WF centre and spread    2  (  1.423790, -0.000000, -0.000000 )     0.88462973
  Sum of centres and spreads (  1.423790, -0.000000, -0.000000 )     1.76925938
 
     14    -0.910E-14     0.0000005348        1.7692592981       2.67  <-- CONV
        O_D=      0.0090253 O_OD=      0.0083989 O_TOT=      1.7692593 <-- SPRD
 Delta: O_D= -0.4484260E-14 O_OD= -0.4543241E-14 O_TOT= -0.9103829E-14 <-- DLTA
 ------------------------------------------------------------------------------
 Cycle:     15
  WF centre and spread    1  ( -0.000000, -0.000000, -0.000000 )     0.88462965
  WF centre and spread    2  (  1.423790, -0.000000, -0.000000 )     0.88462973
  Sum of centres and spreads (  1.423790, -0.000000, -0.000000 )     1.76925938
 
     15    -0.145E-12     0.0000005215        1.7692592981       2.67  <-- CONV
        O_D=      0.0090253 O_OD=      0.0083989 O_TOT=      1.7692593 <-- SPRD
 Delta: O_D= -0.4952809E-13 O_OD= -0.9515479E-13 O_TOT= -0.1445510E-12 <-- DLTA
 ------------------------------------------------------------------------------
 Cycle:     16
  WF centre and spread    1  ( -0.000000, -0.000000, -0.000000 )     0.88462965
  WF centre and spread    2  (  1.423790, -0.000000, -0.000000 )     0.88462973
  Sum of centres and spreads (  1.423790, -0.000000, -0.000000 )     1.76925938
 
     16    -0.377E-14     0.0000003245        1.7692592981       2.67  <-- CONV
        O_D=      0.0090253 O_OD=      0.0083989 O_TOT=      1.7692593 <-- SPRD
 Delta: O_D= -0.3295975E-16 O_OD= -0.3700165E-14 O_TOT= -0.3774758E-14 <-- DLTA
 ------------------------------------------------------------------------------
 Cycle:     17
  WF centre and spread    1  ( -0.000000, -0.000000, -0.000000 )     0.88462965
  WF centre and spread    2  (  1.423790, -0.000000, -0.000000 )     0.88462973
  Sum of centres and spreads (  1.423790, -0.000000, -0.000000 )     1.76925938
 
     17    -0.555E-14     0.0000003229        1.7692592981       2.67  <-- CONV
        O_D=      0.0090253 O_OD=      0.0083989 O_TOT=      1.7692593 <-- SPRD
 Delta: O_D= -0.6245005E-16 O_OD= -0.5223252E-14 O_TOT= -0.5551115E-14 <-- DLTA
 ------------------------------------------------------------------------------
 Cycle:     18
  WF centre and spread    1  ( -0.000000, -0.000000, -0.000000 )     0.88462965
  WF centre and spread    2  (  1.423790, -0.000000, -0.000000 )     0.88462973
  Sum of centres and spreads (  1.423790, -0.000000, -0.000000 )     1.76925938
 
     18    -0.666E-14     0.0000003207        1.7692592981       2.67  <-- CONV
        O_D=      0.0090253 O_OD=      0.0083989 O_TOT=      1.7692593 <-- SPRD
 Delta: O_D= -0.1058181E-15 O_OD= -0.6649195E-14 O_TOT= -0.6661338E-14 <-- DLTA
 ------------------------------------------------------------------------------
 Cycle:     19
  WF centre and spread    1  ( -0.000000, -0.000000, -0.000000 )     0.88462965
  WF centre and spread    2  (  1.423790, -0.000000, -0.000000 )     0.88462973
  Sum of centres and spreads (  1.423790, -0.000000, -0.000000 )     1.76925938
 
     19    -0.133E-14     0.0000003179        1.7692592981       2.67  <-- CONV
        O_D=      0.0090253 O_OD=      0.0083989 O_TOT=      1.7692593 <-- SPRD
 Delta: O_D= -0.9367507E-16 O_OD= -0.1523087E-14 O_TOT= -0.1332268E-14 <-- DLTA
 ------------------------------------------------------------------------------
 Cycle:     20
  WF centre and spread    1  ( -0.000000, -0.000000, -0.000000 )     0.88462965
  WF centre and spread    2  (  1.423790, -0.000000, -0.000000 )     0.88462973
  Sum of centres and spreads (  1.423790, -0.000000, -0.000000 )     1.76925938
 
     20    -0.333E-14     0.0000003170        1.7692592981       2.67  <-- CONV
        O_D=      0.0090253 O_OD=      0.0083989 O_TOT=      1.7692593 <-- SPRD
 Delta: O_D= -0.1856154E-15 O_OD= -0.3042705E-14 O_TOT= -0.3330669E-14 <-- DLTA
 ------------------------------------------------------------------------------
 Cycle:     21
  WF centre and spread    1  ( -0.000000, -0.000000, -0.000000 )     0.88462965
  WF centre and spread    2  (  1.423790, -0.000000, -0.000000 )     0.88462973
  Sum of centres and spreads (  1.423790, -0.000000, -0.000000 )     1.76925938
 
     21    -0.466E-14     0.0000003153        1.7692592981       2.67  <-- CONV
        O_D=      0.0090253 O_OD=      0.0083989 O_TOT=      1.7692593 <-- SPRD
 Delta: O_D= -0.2567391E-15 O_OD= -0.4496403E-14 O_TOT= -0.4662937E-14 <-- DLTA
 ------------------------------------------------------------------------------
 Cycle:     22
  WF centre and spread    1  ( -0.000000, -0.000000, -0.000000 )     0.88462965
  WF centre and spread    2  (  1.423790, -0.000000, -0.000000 )     0.88462973
  Sum of centres and spreads (  1.423790, -0.000000, -0.000000 )     1.76925938
 
     22    -0.644E-14     0.0000003127        1.7692592981       2.67  <-- CONV
        O_D=      0.0090253 O_OD=      0.0083989 O_TOT=      1.7692593 <-- SPRD
 Delta: O_D= -0.3209238E-15 O_OD= -0.5875508E-14 O_TOT= -0.6439294E-14 <-- DLTA
 ------------------------------------------------------------------------------
 Cycle:     23
  WF centre and spread    1  ( -0.000000, -0.000000, -0.000000 )     0.88462965
  WF centre and spread    2  (  1.423790, -0.000000, -0.000000 )     0.88462973
  Sum of centres and spreads (  1.423790, -0.000000, -0.000000 )     1.76925938
 
     23    -0.755E-14     0.0000003093        1.7692592981       2.67  <-- CONV
        O_D=      0.0090253 O_OD=      0.0083989 O_TOT=      1.7692593 <-- SPRD
 Delta: O_D= -0.3816392E-15 O_OD= -0.7140122E-14 O_TOT= -0.7549517E-14 <-- DLTA
 ------------------------------------------------------------------------------
 Cycle:     24
  WF centre and spread    1  ( -0.000000, -0.000000, -0.000000 )     0.88462965
  WF centre and spread    2  (  1.423790, -0.000000, -0.000000 )     0.88462973
  Sum of centres and spreads (  1.423790, -0.000000, -0.000000 )     1.76925938
 
     24    -0.844E-14     0.0000003053        1.7692592981       2.68  <-- CONV
        O_D=      0.0090253 O_OD=      0.0083989 O_TOT=      1.7692593 <-- SPRD
 Delta: O_D= -0.4163336E-15 O_OD= -0.8291978E-14 O_TOT= -0.8437695E-14 <-- DLTA
 ------------------------------------------------------------------------------
 Cycle:     25
  WF centre and spread    1  ( -0.000000, -0.000000, -0.000000 )     0.88462965
  WF centre and spread    2  (  1.423790, -0.000000, -0.000000 )     0.88462973
  Sum of centres and spreads (  1.423790, -0.000000, -0.000000 )     1.76925938
 
     25    -0.178E-14     0.0000003008        1.7692592981       2.68  <-- CONV
        O_D=      0.0090253 O_OD=      0.0083989 O_TOT=      1.7692593 <-- SPRD
 Delta: O_D= -0.6765422E-16 O_OD= -0.1387779E-14 O_TOT= -0.1776357E-14 <-- DLTA
 ------------------------------------------------------------------------------
 Cycle:     26
  WF centre and spread    1  ( -0.000000, -0.000000, -0.000000 )     0.88462965
  WF centre and spread    2  (  1.423790, -0.000000, -0.000000 )     0.88462973
  Sum of centres and spreads (  1.423790, -0.000000, -0.000000 )     1.76925938
 
     26    -0.266E-14     0.0000003001        1.7692592981       2.68  <-- CONV
        O_D=      0.0090253 O_OD=      0.0083989 O_TOT=      1.7692593 <-- SPRD
 Delta: O_D= -0.1179612E-15 O_OD= -0.2768619E-14 O_TOT= -0.2664535E-14 <-- DLTA
 ------------------------------------------------------------------------------
 Cycle:     27
  WF centre and spread    1  ( -0.000000, -0.000000, -0.000000 )     0.88462965
  WF centre and spread    2  (  1.423790, -0.000000, -0.000000 )     0.88462973
  Sum of centres and spreads (  1.423790, -0.000000, -0.000000 )     1.76925938
 
     27    -0.444E-14     0.0000002986        1.7692592981       2.68  <-- CONV
        O_D=      0.0090253 O_OD=      0.0083989 O_TOT=      1.7692593 <-- SPRD
 Delta: O_D= -0.1821460E-15 O_OD= -0.4093947E-14 O_TOT= -0.4440892E-14 <-- DLTA
 ------------------------------------------------------------------------------
 Cycle:     28
  WF centre and spread    1  ( -0.000000, -0.000000, -0.000000 )     0.88462965
  WF centre and spread    2  (  1.423790, -0.000000, -0.000000 )     0.88462973
  Sum of centres and spreads (  1.423790, -0.000000, -0.000000 )     1.76925938
 
     28    -0.555E-14     0.0000002965        1.7692592981       2.68  <-- CONV
        O_D=      0.0090253 O_OD=      0.0083989 O_TOT=      1.7692593 <-- SPRD
 Delta: O_D= -0.2237793E-15 O_OD= -0.5356826E-14 O_TOT= -0.5551115E-14 <-- DLTA
 ------------------------------------------------------------------------------
 Cycle:     29
  WF centre and spread    1  ( -0.000000, -0.000000, -0.000000 )     0.88462965
  WF centre and spread    2  (  1.423790, -0.000000, -0.000000 )     0.88462973
  Sum of centres and spreads (  1.423790, -0.000000, -0.000000 )     1.76925938
 
     29    -0.666E-14     0.0000002938        1.7692592981       2.68  <-- CONV
        O_D=      0.0090253 O_OD=      0.0083989 O_TOT=      1.7692593 <-- SPRD
 Delta: O_D= -0.2688821E-15 O_OD= -0.6543377E-14 O_TOT= -0.6661338E-14 <-- DLTA
 ------------------------------------------------------------------------------
 Cycle:     30
  WF centre and spread    1  ( -0.000000, -0.000000, -0.000000 )     0.88462965
  WF centre and spread    2  (  1.423790, -0.000000, -0.000000 )     0.88462973
  Sum of centres and spreads (  1.423790, -0.000000, -0.000000 )     1.76925938
 
     30    -0.799E-14     0.0000002905        1.7692592981       2.68  <-- CONV
        O_D=      0.0090253 O_OD=      0.0083989 O_TOT=      1.7692593 <-- SPRD
 Delta: O_D= -0.2983724E-15 O_OD= -0.7625844E-14 O_TOT= -0.7993606E-14 <-- DLTA
 ------------------------------------------------------------------------------
 Cycle:     31
  WF centre and spread    1  ( -0.000000, -0.000000, -0.000000 )     0.88462965
  WF centre and spread    2  (  1.423790, -0.000000, -0.000000 )     0.88462973
  Sum of centres and spreads (  1.423790, -0.000000, -0.000000 )     1.76925938
 
     31    -0.133E-14     0.0000002867        1.7692592981       2.68  <-- CONV
        O_D=      0.0090253 O_OD=      0.0083989 O_TOT=      1.7692593 <-- SPRD
 Delta: O_D= -0.4510281E-16 O_OD= -0.1280226E-14 O_TOT= -0.1332268E-14 <-- DLTA
 ------------------------------------------------------------------------------
 Cycle:     32
  WF centre and spread    1  ( -0.000000, -0.000000, -0.000000 )     0.88462965
  WF centre and spread    2  (  1.423790, -0.000000, -0.000000 )     0.88462973
  Sum of centres and spreads (  1.423790, -0.000000, -0.000000 )     1.76925938
 
     32    -0.266E-14     0.0000002861        1.7692592981       2.68  <-- CONV
        O_D=      0.0090253 O_OD=      0.0083989 O_TOT=      1.7692593 <-- SPRD
 Delta: O_D= -0.9367507E-16 O_OD= -0.2536166E-14 O_TOT= -0.2664535E-14 <-- DLTA
 ------------------------------------------------------------------------------
 Cycle:     33
  WF centre and spread    1  ( -0.000000, -0.000000, -0.000000 )     0.88462965
  WF centre and spread    2  (  1.423790, -0.000000, -0.000000 )     0.88462973
  Sum of centres and spreads (  1.423790, -0.000000, -0.000000 )     1.76925938
 
     33    -0.400E-14     0.0000002849        1.7692592981       2.68  <-- CONV
        O_D=      0.0090253 O_OD=      0.0083989 O_TOT=      1.7692593 <-- SPRD
 Delta: O_D= -0.1370432E-15 O_OD= -0.3759146E-14 O_TOT= -0.3996803E-14 <-- DLTA
 ------------------------------------------------------------------------------
 Cycle:     34
  WF centre and spread    1  ( -0.000000, -0.000000, -0.000000 )     0.88462965
  WF centre and spread    2  (  1.423790, -0.000000, -0.000000 )     0.88462973
  Sum of centres and spreads (  1.423790, -0.000000, -0.000000 )     1.76925938
 
     34    -0.511E-14     0.0000002831        1.7692592981       2.68  <-- CONV
        O_D=      0.0090253 O_OD=      0.0083989 O_TOT=      1.7692593 <-- SPRD
 Delta: O_D= -0.1717376E-15 O_OD= -0.4928349E-14 O_TOT= -0.5107026E-14 <-- DLTA
 ------------------------------------------------------------------------------
 Cycle:     35
  WF centre and spread    1  ( -0.000000, -0.000000, -0.000000 )     0.88462965
  WF centre and spread    2  (  1.423790, -0.000000, -0.000000 )     0.88462973
  Sum of centres and spreads (  1.423790, -0.000000, -0.000000 )     1.76925938
 
     35    -0.622E-14     0.0000002807        1.7692592981       2.68  <-- CONV
        O_D=      0.0090253 O_OD=      0.0083989 O_TOT=      1.7692593 <-- SPRD
 Delta: O_D= -0.2099015E-15 O_OD= -0.6026429E-14 O_TOT= -0.6217249E-14 <-- DLTA
 ------------------------------------------------------------------------------
 Cycle:     36
  WF centre and spread    1  ( -0.000000, -0.000000, -0.000000 )     0.88462965
  WF centre and spread    2  (  1.423790, -0.000000, -0.000000 )     0.88462973
  Sum of centres and spreads (  1.423790, -0.000000, -0.000000 )     1.76925938
 
     36    -0.733E-14     0.0000002778        1.7692592981       2.68  <-- CONV
        O_D=      0.0090253 O_OD=      0.0083989 O_TOT=      1.7692593 <-- SPRD
 Delta: O_D= -0.2359224E-15 O_OD= -0.7027365E-14 O_TOT= -0.7327472E-14 <-- DLTA
 ------------------------------------------------------------------------------
 Cycle:     37
  WF centre and spread    1  ( -0.000000, -0.000000, -0.000000 )     0.88462965
  WF centre and spread    2  (  1.423790, -0.000000, -0.000000 )     0.88462973
  Sum of centres and spreads (  1.423790, -0.000000, -0.000000 )     1.76925938
 
     37    -0.111E-14     0.0000002745        1.7692592981       2.68  <-- CONV
        O_D=      0.0090253 O_OD=      0.0083989 O_TOT=      1.7692593 <-- SPRD
 Delta: O_D= -0.3642919E-16 O_OD= -0.1170938E-14 O_TOT= -0.1110223E-14 <-- DLTA
 ------------------------------------------------------------------------------
 Cycle:     38
  WF centre and spread    1  ( -0.000000, -0.000000, -0.000000 )     0.88462965
  WF centre and spread    2  (  1.423790, -0.000000, -0.000000 )     0.88462973
  Sum of centres and spreads (  1.423790, -0.000000, -0.000000 )     1.76925938
 
     38    -0.222E-14     0.0000002739        1.7692592981       2.68  <-- CONV
        O_D=      0.0090253 O_OD=      0.0083989 O_TOT=      1.7692593 <-- SPRD
 Delta: O_D= -0.7285839E-16 O_OD= -0.2331468E-14 O_TOT= -0.2220446E-14 <-- DLTA
 ------------------------------------------------------------------------------
 Cycle:     39
  WF centre and spread    1  ( -0.000000, -0.000000, -0.000000 )     0.88462965
  WF centre and spread    2  (  1.423790, -0.000000, -0.000000 )     0.88462973
  Sum of centres and spreads (  1.423790, -0.000000, -0.000000 )     1.76925938
 
     39    -0.377E-14     0.0000002728        1.7692592981       2.69  <-- CONV
        O_D=      0.0090253 O_OD=      0.0083989 O_TOT=      1.7692593 <-- SPRD
 Delta: O_D= -0.1075529E-15 O_OD= -0.3457304E-14 O_TOT= -0.3774758E-14 <-- DLTA
 ------------------------------------------------------------------------------
 Cycle:     40
  WF centre and spread    1  ( -0.000000, -0.000000, -0.000000 )     0.88462965
  WF centre and spread    2  (  1.423790, -0.000000, -0.000000 )     0.88462973
  Sum of centres and spreads (  1.423790, -0.000000, -0.000000 )     1.76925938
 
     40    -0.444E-14     0.0000002712        1.7692592981       2.69  <-- CONV
        O_D=      0.0090253 O_OD=      0.0083989 O_TOT=      1.7692593 <-- SPRD
 Delta: O_D= -0.1405126E-15 O_OD= -0.4541506E-14 O_TOT= -0.4440892E-14 <-- DLTA
 ------------------------------------------------------------------------------
 Cycle:     41
  WF centre and spread    1  ( -0.000000, -0.000000, -0.000000 )     0.88462965
  WF centre and spread    2  (  1.423790, -0.000000, -0.000000 )     0.88462973
  Sum of centres and spreads (  1.423790, -0.000000, -0.000000 )     1.76925938
 
     41    -0.577E-14     0.0000002691        1.7692592981       2.69  <-- CONV
        O_D=      0.0090253 O_OD=      0.0083989 O_TOT=      1.7692593 <-- SPRD
 Delta: O_D= -0.1682682E-15 O_OD= -0.5558054E-14 O_TOT= -0.5773160E-14 <-- DLTA
 ------------------------------------------------------------------------------
 Cycle:     42
  WF centre and spread    1  ( -0.000000, -0.000000, -0.000000 )     0.88462965
  WF centre and spread    2  (  1.423790, -0.000000, -0.000000 )     0.88462973
  Sum of centres and spreads (  1.423790, -0.000000, -0.000000 )     1.76925938
 
     42    -0.688E-14     0.0000002665        1.7692592981       2.69  <-- CONV
        O_D=      0.0090253 O_OD=      0.0083989 O_TOT=      1.7692593 <-- SPRD
 Delta: O_D= -0.2012279E-15 O_OD= -0.6501744E-14 O_TOT= -0.6883383E-14 <-- DLTA
 ------------------------------------------------------------------------------
 Cycle:     43
  WF centre and spread    1  ( -0.000000, -0.000000, -0.000000 )     0.88462965
  WF centre and spread    2  (  1.423790, -0.000000, -0.000000 )     0.88462973
  Sum of centres and spreads (  1.423790, -0.000000, -0.000000 )     1.76925938
 
     43    -0.111E-14     0.0000002635        1.7692592981       2.69  <-- CONV
        O_D=      0.0090253 O_OD=      0.0083989 O_TOT=      1.7692593 <-- SPRD
 Delta: O_D= -0.3122502E-16 O_OD= -0.1085937E-14 O_TOT= -0.1110223E-14 <-- DLTA
 ------------------------------------------------------------------------------
 Cycle:     44
  WF centre and spread    1  ( -0.000000, -0.000000, -0.000000 )     0.88462965
  WF centre and spread    2  (  1.423790, -0.000000, -0.000000 )     0.88462973
  Sum of centres and spreads (  1.423790, -0.000000, -0.000000 )     1.76925938
 
     44    -0.200E-14     0.0000002630        1.7692592981       2.69  <-- CONV
        O_D=      0.0090253 O_OD=      0.0083989 O_TOT=      1.7692593 <-- SPRD
 Delta: O_D= -0.5724587E-16 O_OD= -0.2168404E-14 O_TOT= -0.1998401E-14 <-- DLTA
 ------------------------------------------------------------------------------
 Cycle:     45
  WF centre and spread    1  ( -0.000000, -0.000000, -0.000000 )     0.88462965
  WF centre and spread    2  (  1.423790, -0.000000, -0.000000 )     0.88462973
  Sum of centres and spreads (  1.423790, -0.000000, -0.000000 )     1.76925938
 
     45    -0.355E-14     0.0000002620        1.7692592981       2.69  <-- CONV
        O_D=      0.0090253 O_OD=      0.0083989 O_TOT=      1.7692593 <-- SPRD
 Delta: O_D= -0.9020562E-16 O_OD= -0.3204034E-14 O_TOT= -0.3552714E-14 <-- DLTA
 ------------------------------------------------------------------------------
 Cycle:     46
  WF centre and spread    1  ( -0.000000, -0.000000, -0.000000 )     0.88462965
  WF centre and spread    2  (  1.423790, -0.000000, -0.000000 )     0.88462973
  Sum of centres and spreads (  1.423790, -0.000000, -0.000000 )     1.76925938
 
     46    -0.422E-14     0.0000002605        1.7692592981       2.69  <-- CONV
        O_D=      0.0090253 O_OD=      0.0083989 O_TOT=      1.7692593 <-- SPRD
 Delta: O_D= -0.1179612E-15 O_OD= -0.4199766E-14 O_TOT= -0.4218847E-14 <-- DLTA
 ------------------------------------------------------------------------------
 Cycle:     47
  WF centre and spread    1  ( -0.000000, -0.000000, -0.000000 )     0.88462965
  WF centre and spread    2  (  1.423790, -0.000000, -0.000000 )     0.88462973
  Sum of centres and spreads (  1.423790, -0.000000, -0.000000 )     1.76925938
 
     47    -0.533E-14     0.0000002586        1.7692592981       2.69  <-- CONV
        O_D=      0.0090253 O_OD=      0.0083989 O_TOT=      1.7692593 <-- SPRD
 Delta: O_D= -0.1439820E-15 O_OD= -0.5148659E-14 O_TOT= -0.5329071E-14 <-- DLTA
 ------------------------------------------------------------------------------
 Cycle:     48
  WF centre and spread    1  ( -0.000000, -0.000000, -0.000000 )     0.88462965
  WF centre and spread    2  (  1.423790, -0.000000, -0.000000 )     0.88462973
[...]
 Cycle:    370
  WF centre and spread    1  ( -0.000000, -0.000000, -0.000000 )     0.88462965
  WF centre and spread    2  (  1.423790, -0.000000, -0.000000 )     0.88462973
  Sum of centres and spreads (  1.423790, -0.000000, -0.000000 )     1.76925938
 
    370     0.000E+00     0.0000000405        1.7692592981       2.95  <-- CONV
        O_D=      0.0090253 O_OD=      0.0083989 O_TOT=      1.7692593 <-- SPRD
 Delta: O_D=  0.0000000E+00 O_OD= -0.1058181E-15 O_TOT=  0.0000000E+00 <-- DLTA
 ------------------------------------------------------------------------------
 Cycle:    371
  WF centre and spread    1  ( -0.000000, -0.000000, -0.000000 )     0.88462965
  WF centre and spread    2  (  1.423790, -0.000000, -0.000000 )     0.88462973
  Sum of centres and spreads (  1.423790, -0.000000, -0.000000 )     1.76925938
 
    371    -0.222E-15     0.0000000403        1.7692592981       2.95  <-- CONV
        O_D=      0.0090253 O_OD=      0.0083989 O_TOT=      1.7692593 <-- SPRD
 Delta: O_D= -0.1734723E-17 O_OD= -0.1318390E-15 O_TOT= -0.2220446E-15 <-- DLTA
 ------------------------------------------------------------------------------
 Cycle:    372
  WF centre and spread    1  ( -0.000000, -0.000000, -0.000000 )     0.88462965
  WF centre and spread    2  (  1.423790, -0.000000, -0.000000 )     0.88462973
  Sum of centres and spreads (  1.423790, -0.000000, -0.000000 )     1.76925938
 
    372    -0.222E-15     0.0000000399        1.7692592981       2.95  <-- CONV
        O_D=      0.0090253 O_OD=      0.0083989 O_TOT=      1.7692593 <-- SPRD
 Delta: O_D= -0.3469447E-17 O_OD= -0.1543904E-15 O_TOT= -0.2220446E-15 <-- DLTA
 ------------------------------------------------------------------------------
 Cycle:    373
  WF centre and spread    1  ( -0.000000, -0.000000, -0.000000 )     0.88462965
  WF centre and spread    2  (  1.423790, -0.000000, -0.000000 )     0.88462973
  Sum of centres and spreads (  1.423790, -0.000000, -0.000000 )     1.76925938
 
    373     0.000E+00     0.0000000395        1.7692592981       2.95  <-- CONV
        O_D=      0.0090253 O_OD=      0.0083989 O_TOT=      1.7692593 <-- SPRD
 Delta: O_D=  0.1734723E-17 O_OD= -0.2428613E-16 O_TOT=  0.0000000E+00 <-- DLTA
 ------------------------------------------------------------------------------
 Cycle:    374
  WF centre and spread    1  ( -0.000000, -0.000000, -0.000000 )     0.88462965
  WF centre and spread    2  (  1.423790, -0.000000, -0.000000 )     0.88462973
  Sum of centres and spreads (  1.423790, -0.000000, -0.000000 )     1.76925938
 
    374     0.000E+00     0.0000000395        1.7692592981       2.95  <-- CONV
        O_D=      0.0090253 O_OD=      0.0083989 O_TOT=      1.7692593 <-- SPRD
 Delta: O_D=  0.0000000E+00 O_OD= -0.5030698E-16 O_TOT=  0.0000000E+00 <-- DLTA
 ------------------------------------------------------------------------------
 Cycle:    375
  WF centre and spread    1  ( -0.000000, -0.000000, -0.000000 )     0.88462965
  WF centre and spread    2  (  1.423790, -0.000000, -0.000000 )     0.88462973
  Sum of centres and spreads (  1.423790, -0.000000, -0.000000 )     1.76925938
 
    375     0.000E+00     0.0000000394        1.7692592981       2.95  <-- CONV
        O_D=      0.0090253 O_OD=      0.0083989 O_TOT=      1.7692593 <-- SPRD
 Delta: O_D=  0.3469447E-17 O_OD= -0.7632783E-16 O_TOT=  0.0000000E+00 <-- DLTA
 ------------------------------------------------------------------------------
 Cycle:    376
  WF centre and spread    1  ( -0.000000, -0.000000, -0.000000 )     0.88462965
  WF centre and spread    2  (  1.423790, -0.000000, -0.000000 )     0.88462973
  Sum of centres and spreads (  1.423790, -0.000000, -0.000000 )     1.76925938
 
    376    -0.222E-15     0.0000000392        1.7692592981       2.95  <-- CONV
        O_D=      0.0090253 O_OD=      0.0083989 O_TOT=      1.7692593 <-- SPRD
 Delta: O_D= -0.5204170E-17 O_OD= -0.1023487E-15 O_TOT= -0.2220446E-15 <-- DLTA
 ------------------------------------------------------------------------------
 Cycle:    377
  WF centre and spread    1  ( -0.000000, -0.000000, -0.000000 )     0.88462965
  WF centre and spread    2  (  1.423790, -0.000000, -0.000000 )     0.88462973
  Sum of centres and spreads (  1.423790, -0.000000, -0.000000 )     1.76925938
 
    377     0.000E+00     0.0000000389        1.7692592981       2.95  <-- CONV
        O_D=      0.0090253 O_OD=      0.0083989 O_TOT=      1.7692593 <-- SPRD
 Delta: O_D=  0.3469447E-17 O_OD= -0.1266348E-15 O_TOT=  0.0000000E+00 <-- DLTA
 ------------------------------------------------------------------------------
 Cycle:    378
  WF centre and spread    1  ( -0.000000, -0.000000, -0.000000 )     0.88462965
  WF centre and spread    2  (  1.423790, -0.000000, -0.000000 )     0.88462973
  Sum of centres and spreads (  1.423790, -0.000000, -0.000000 )     1.76925938
 
    378    -0.222E-15     0.0000000386        1.7692592981       2.95  <-- CONV
        O_D=      0.0090253 O_OD=      0.0083989 O_TOT=      1.7692593 <-- SPRD
 Delta: O_D= -0.6938894E-17 O_OD= -0.1474515E-15 O_TOT= -0.2220446E-15 <-- DLTA
 ------------------------------------------------------------------------------
 Cycle:    379
  WF centre and spread    1  ( -0.000000, -0.000000, -0.000000 )     0.88462965
  WF centre and spread    2  (  1.423790, -0.000000, -0.000000 )     0.88462973
  Sum of centres and spreads (  1.423790, -0.000000, -0.000000 )     1.76925938
 
    379     0.000E+00     0.0000000382        1.7692592981       2.95  <-- CONV
        O_D=      0.0090253 O_OD=      0.0083989 O_TOT=      1.7692593 <-- SPRD
 Delta: O_D=  0.3469447E-17 O_OD= -0.1734723E-16 O_TOT=  0.0000000E+00 <-- DLTA
 ------------------------------------------------------------------------------
 Cycle:    380
  WF centre and spread    1  ( -0.000000, -0.000000, -0.000000 )     0.88462965
  WF centre and spread    2  (  1.423790, -0.000000, -0.000000 )     0.88462973
  Sum of centres and spreads (  1.423790, -0.000000, -0.000000 )     1.76925938
 
    380     0.000E+00     0.0000000382        1.7692592981       2.95  <-- CONV
        O_D=      0.0090253 O_OD=      0.0083989 O_TOT=      1.7692593 <-- SPRD
 Delta: O_D=  0.0000000E+00 O_OD= -0.4336809E-16 O_TOT=  0.0000000E+00 <-- DLTA
 ------------------------------------------------------------------------------
 Cycle:    381
  WF centre and spread    1  ( -0.000000, -0.000000, -0.000000 )     0.88462965
  WF centre and spread    2  (  1.423790, -0.000000, -0.000000 )     0.88462973
  Sum of centres and spreads (  1.423790, -0.000000, -0.000000 )     1.76925938
 
    381    -0.222E-15     0.0000000380        1.7692592981       2.95  <-- CONV
        O_D=      0.0090253 O_OD=      0.0083989 O_TOT=      1.7692593 <-- SPRD
 Delta: O_D=  0.3469447E-17 O_OD= -0.7112366E-16 O_TOT= -0.2220446E-15 <-- DLTA
 ------------------------------------------------------------------------------
 Cycle:    382
  WF centre and spread    1  ( -0.000000, -0.000000, -0.000000 )     0.88462965
  WF centre and spread    2  (  1.423790, -0.000000, -0.000000 )     0.88462973
  Sum of centres and spreads (  1.423790, -0.000000, -0.000000 )     1.76925938
 
    382     0.000E+00     0.0000000378        1.7692592981       2.96  <-- CONV
        O_D=      0.0090253 O_OD=      0.0083989 O_TOT=      1.7692593 <-- SPRD
 Delta: O_D= -0.1734723E-17 O_OD= -0.9194034E-16 O_TOT=  0.0000000E+00 <-- DLTA
 ------------------------------------------------------------------------------
 Cycle:    383
  WF centre and spread    1  ( -0.000000, -0.000000, -0.000000 )     0.88462965
  WF centre and spread    2  (  1.423790, -0.000000, -0.000000 )     0.88462973
  Sum of centres and spreads (  1.423790, -0.000000, -0.000000 )     1.76925938
 
    383    -0.222E-15     0.0000000376        1.7692592981       2.96  <-- CONV
        O_D=      0.0090253 O_OD=      0.0083989 O_TOT=      1.7692593 <-- SPRD
 Delta: O_D= -0.1734723E-17 O_OD= -0.1075529E-15 O_TOT= -0.2220446E-15 <-- DLTA
 ------------------------------------------------------------------------------
 Cycle:    384
  WF centre and spread    1  ( -0.000000, -0.000000, -0.000000 )     0.88462965
  WF centre and spread    2  (  1.423790, -0.000000, -0.000000 )     0.88462973
  Sum of centres and spreads (  1.423790, -0.000000, -0.000000 )     1.76925938
 
    384     0.000E+00     0.0000000373        1.7692592981       2.96  <-- CONV
        O_D=      0.0090253 O_OD=      0.0083989 O_TOT=      1.7692593 <-- SPRD
 Delta: O_D=  0.0000000E+00 O_OD= -0.1335737E-15 O_TOT=  0.0000000E+00 <-- DLTA
 ------------------------------------------------------------------------------
 Cycle:    385
  WF centre and spread    1  ( -0.000000, -0.000000, -0.000000 )     0.88462965
  WF centre and spread    2  (  1.423790, -0.000000, -0.000000 )     0.88462973
  Sum of centres and spreads (  1.423790, -0.000000, -0.000000 )     1.76925938
 
    385     0.000E+00     0.0000000369        1.7692592981       2.96  <-- CONV
        O_D=      0.0090253 O_OD=      0.0083989 O_TOT=      1.7692593 <-- SPRD
 Delta: O_D=  0.0000000E+00 O_OD= -0.2081668E-16 O_TOT=  0.0000000E+00 <-- DLTA
 ------------------------------------------------------------------------------
 Cycle:    386
  WF centre and spread    1  ( -0.000000, -0.000000, -0.000000 )     0.88462965
  WF centre and spread    2  (  1.423790, -0.000000, -0.000000 )     0.88462973
  Sum of centres and spreads (  1.423790, -0.000000, -0.000000 )     1.76925938
 
    386     0.000E+00     0.0000000369        1.7692592981       2.96  <-- CONV
        O_D=      0.0090253 O_OD=      0.0083989 O_TOT=      1.7692593 <-- SPRD
 Delta: O_D=  0.0000000E+00 O_OD= -0.3816392E-16 O_TOT=  0.0000000E+00 <-- DLTA
 ------------------------------------------------------------------------------
 Cycle:    387
  WF centre and spread    1  ( -0.000000, -0.000000, -0.000000 )     0.88462965
  WF centre and spread    2  (  1.423790, -0.000000, -0.000000 )     0.88462973
  Sum of centres and spreads (  1.423790, -0.000000, -0.000000 )     1.76925938
 
    387    -0.222E-15     0.0000000368        1.7692592981       2.96  <-- CONV
        O_D=      0.0090253 O_OD=      0.0083989 O_TOT=      1.7692593 <-- SPRD
 Delta: O_D= -0.5204170E-17 O_OD= -0.6591949E-16 O_TOT= -0.2220446E-15 <-- DLTA
 ------------------------------------------------------------------------------
 Cycle:    388
  WF centre and spread    1  ( -0.000000, -0.000000, -0.000000 )     0.88462965
  WF centre and spread    2  (  1.423790, -0.000000, -0.000000 )     0.88462973
  Sum of centres and spreads (  1.423790, -0.000000, -0.000000 )     1.76925938
 
    388     0.000E+00     0.0000000366        1.7692592981       2.96  <-- CONV
        O_D=      0.0090253 O_OD=      0.0083989 O_TOT=      1.7692593 <-- SPRD
 Delta: O_D=  0.1734723E-17 O_OD= -0.7632783E-16 O_TOT=  0.0000000E+00 <-- DLTA
 ------------------------------------------------------------------------------
 Cycle:    389
  WF centre and spread    1  ( -0.000000, -0.000000, -0.000000 )     0.88462965
  WF centre and spread    2  (  1.423790, -0.000000, -0.000000 )     0.88462973
  Sum of centres and spreads (  1.423790, -0.000000, -0.000000 )     1.76925938
 
    389    -0.444E-15     0.0000000363        1.7692592981       2.96  <-- CONV
        O_D=      0.0090253 O_OD=      0.0083989 O_TOT=      1.7692593 <-- SPRD
 Delta: O_D= -0.3469447E-17 O_OD= -0.1092876E-15 O_TOT= -0.4440892E-15 <-- DLTA
 ------------------------------------------------------------------------------
 Cycle:    390
  WF centre and spread    1  ( -0.000000, -0.000000, -0.000000 )     0.88462965
  WF centre and spread    2  (  1.423790, -0.000000, -0.000000 )     0.88462973
  Sum of centres and spreads (  1.423790, -0.000000, -0.000000 )     1.76925938
 
    390     0.000E+00     0.0000000360        1.7692592981       2.96  <-- CONV
        O_D=      0.0090253 O_OD=      0.0083989 O_TOT=      1.7692593 <-- SPRD
 Delta: O_D=  0.0000000E+00 O_OD= -0.1318390E-15 O_TOT=  0.0000000E+00 <-- DLTA
 ------------------------------------------------------------------------------
 Cycle:    391
  WF centre and spread    1  ( -0.000000, -0.000000, -0.000000 )     0.88462965
  WF centre and spread    2  (  1.423790, -0.000000, -0.000000 )     0.88462973
  Sum of centres and spreads (  1.423790, -0.000000, -0.000000 )     1.76925938
 
    391     0.000E+00     0.0000000357        1.7692592981       2.96  <-- CONV
        O_D=      0.0090253 O_OD=      0.0083989 O_TOT=      1.7692593 <-- SPRD
 Delta: O_D= -0.1734723E-17 O_OD= -0.2428613E-16 O_TOT=  0.0000000E+00 <-- DLTA
 ------------------------------------------------------------------------------
 Cycle:    392
  WF centre and spread    1  ( -0.000000, -0.000000, -0.000000 )     0.88462965
  WF centre and spread    2  (  1.423790, -0.000000, -0.000000 )     0.88462973
  Sum of centres and spreads (  1.423790, -0.000000, -0.000000 )     1.76925938
 
    392     0.000E+00     0.0000000356        1.7692592981       2.96  <-- CONV
        O_D=      0.0090253 O_OD=      0.0083989 O_TOT=      1.7692593 <-- SPRD
 Delta: O_D= -0.6938894E-17 O_OD= -0.3642919E-16 O_TOT=  0.0000000E+00 <-- DLTA
 ------------------------------------------------------------------------------
 Cycle:    393
  WF centre and spread    1  ( -0.000000, -0.000000, -0.000000 )     0.88462965
  WF centre and spread    2  (  1.423790, -0.000000, -0.000000 )     0.88462973
  Sum of centres and spreads (  1.423790, -0.000000, -0.000000 )     1.76925938
 
    393    -0.222E-15     0.0000000355        1.7692592981       2.96  <-- CONV
        O_D=      0.0090253 O_OD=      0.0083989 O_TOT=      1.7692593 <-- SPRD
 Delta: O_D=  0.1734723E-17 O_OD= -0.5551115E-16 O_TOT= -0.2220446E-15 <-- DLTA
 ------------------------------------------------------------------------------
 Cycle:    394
  WF centre and spread    1  ( -0.000000, -0.000000, -0.000000 )     0.88462965
  WF centre and spread    2  (  1.423790, -0.000000, -0.000000 )     0.88462973
  Sum of centres and spreads (  1.423790, -0.000000, -0.000000 )     1.76925938
 
    394     0.000E+00     0.0000000354        1.7692592981       2.96  <-- CONV
        O_D=      0.0090253 O_OD=      0.0083989 O_TOT=      1.7692593 <-- SPRD
 Delta: O_D=  0.0000000E+00 O_OD= -0.8673617E-16 O_TOT=  0.0000000E+00 <-- DLTA
 ------------------------------------------------------------------------------
 Cycle:    395
  WF centre and spread    1  ( -0.000000, -0.000000, -0.000000 )     0.88462965
  WF centre and spread    2  (  1.423790, -0.000000, -0.000000 )     0.88462973
  Sum of centres and spreads (  1.423790, -0.000000, -0.000000 )     1.76925938
 
    395    -0.222E-15     0.0000000351        1.7692592981       2.97  <-- CONV
        O_D=      0.0090253 O_OD=      0.0083989 O_TOT=      1.7692593 <-- SPRD
 Delta: O_D=  0.3469447E-17 O_OD= -0.9714451E-16 O_TOT= -0.2220446E-15 <-- DLTA
 ------------------------------------------------------------------------------
 Cycle:    396
  WF centre and spread    1  ( -0.000000, -0.000000, -0.000000 )     0.88462965
  WF centre and spread    2  (  1.423790, -0.000000, -0.000000 )     0.88462973
  Sum of centres and spreads (  1.423790, -0.000000, -0.000000 )     1.76925938
 
    396     0.000E+00     0.0000000348        1.7692592981       2.97  <-- CONV
        O_D=      0.0090253 O_OD=      0.0083989 O_TOT=      1.7692593 <-- SPRD
 Delta: O_D= -0.5204170E-17 O_OD= -0.1144917E-15 O_TOT=  0.0000000E+00 <-- DLTA
 ------------------------------------------------------------------------------
 Cycle:    397
  WF centre and spread    1  ( -0.000000, -0.000000, -0.000000 )     0.88462965
  WF centre and spread    2  (  1.423790, -0.000000, -0.000000 )     0.88462973
  Sum of centres and spreads (  1.423790, -0.000000, -0.000000 )     1.76925938
 
    397     0.000E+00     0.0000000345        1.7692592981       2.97  <-- CONV
        O_D=      0.0090253 O_OD=      0.0083989 O_TOT=      1.7692593 <-- SPRD
 Delta: O_D=  0.0000000E+00 O_OD= -0.1387779E-16 O_TOT=  0.0000000E+00 <-- DLTA
 ------------------------------------------------------------------------------
 Cycle:    398
  WF centre and spread    1  ( -0.000000, -0.000000, -0.000000 )     0.88462965
  WF centre and spread    2  (  1.423790, -0.000000, -0.000000 )     0.88462973
  Sum of centres and spreads (  1.423790, -0.000000, -0.000000 )     1.76925938
 
    398     0.000E+00     0.0000000344        1.7692592981       2.97  <-- CONV
        O_D=      0.0090253 O_OD=      0.0083989 O_TOT=      1.7692593 <-- SPRD
 Delta: O_D= -0.3469447E-17 O_OD= -0.3469447E-16 O_TOT=  0.0000000E+00 <-- DLTA
 ------------------------------------------------------------------------------
 Cycle:    399
  WF centre and spread    1  ( -0.000000, -0.000000, -0.000000 )     0.88462965
  WF centre and spread    2  (  1.423790, -0.000000, -0.000000 )     0.88462973
  Sum of centres and spreads (  1.423790, -0.000000, -0.000000 )     1.76925938
 
    399    -0.222E-15     0.0000000343        1.7692592981       2.97  <-- CONV
        O_D=      0.0090253 O_OD=      0.0083989 O_TOT=      1.7692593 <-- SPRD
 Delta: O_D=  0.5204170E-17 O_OD= -0.5377643E-16 O_TOT= -0.2220446E-15 <-- DLTA
 ------------------------------------------------------------------------------
 Cycle:    400
  WF centre and spread    1  ( -0.000000, -0.000000, -0.000000 )     0.88462965
  WF centre and spread    2  (  1.423790, -0.000000, -0.000000 )     0.88462973
  Sum of centres and spreads (  1.423790, -0.000000, -0.000000 )     1.76925938
 
    400     0.000E+00     0.0000000342        1.7692592981       2.97  <-- CONV
        O_D=      0.0090253 O_OD=      0.0083989 O_TOT=      1.7692593 <-- SPRD
 Delta: O_D= -0.3469447E-17 O_OD= -0.7632783E-16 O_TOT=  0.0000000E+00 <-- DLTA
 ------------------------------------------------------------------------------

 Writing checkpoint file wannier/graphene.chk... done

 Final State
  WF centre and spread    1  ( -0.000000, -0.000000, -0.000000 )     0.88462965
  WF centre and spread    2  (  1.423790, -0.000000, -0.000000 )     0.88462973
  Sum of centres and spreads (  1.423790, -0.000000, -0.000000 )     1.76925938
 
         Spreads (Ang^2)       Omega I      =     1.751835083
        ================       Omega D      =     0.009025311
                               Omega OD     =     0.008398903
    Final Spread (Ang^2)       Omega Total  =     1.769259298
 ------------------------------------------------------------------------------

 Wannier centres written to file wannier/graphene_centres.xyz
 Time for wannierise            0.330 (sec)

 Writing checkpoint file wannier/graphene.chk... done

 *---------------------------------------------------------------------------*
 |                               PLOTTING                                    |
 *---------------------------------------------------------------------------*
 
 Time for plotting              0.051 (sec)
 Total Execution Time           4.642 (sec)

 *===========================================================================*
 |                             TIMING INFORMATION                            |
 *===========================================================================*
 |    Tag                                                Ncalls      Time (s)|
 |---------------------------------------------------------------------------|
 |kmesh: get                                        :         1         0.016|
 |overlap: allocate                                 :         1         0.000|
 |overlap: read                                     :         1         1.468|
 |dis: main                                         :         1         2.709|
 |wann: main                                        :         1         0.330|
 |plot: main                                        :         1         0.051|
 *---------------------------------------------------------------------------*
 
 All done: wannier90 exiting
